    #         X           Y           Z       CHARGE      MIN DIST   ATOMIC VOL
 --------------------------------------------------------------------------------
    1          -26.816988          -52.262179          -71.540025            0.000000    10.223742   861.898867
    2          -24.896313          -52.004705          -70.838880            0.041529     0.884668   339.903778
    3          -24.294562          -49.797395          -69.493894            0.000000     0.000000     0.000000
    4          -23.073280          -53.859928          -71.275201            0.002449     0.290658    35.575563
    5          -21.812466          -49.498645          -68.603064            0.042224     0.885443   419.504670
    6          -26.240653          -47.820436          -69.016501            0.753443     1.783744   497.989555
    7          -20.611661          -53.537586          -70.381956            0.020842     1.105813   929.360338
    8          -23.580200          -55.561779          -72.320703            0.002287     0.667375  2757.493317
    9          -21.318632          -47.791542          -67.559032            0.000000    10.323484  1160.510395
   10          -19.986740          -51.349218          -69.046771            0.001966     0.323393    18.220519
   11          -27.173825          -47.430421          -66.538770            0.000000     0.000000     0.000000
   12          -27.174618          -46.330690          -71.035819            0.000000     0.000000     0.000000
   13          -19.186168          -54.985005          -70.725291            0.000000    10.027529  3962.165694
   14          -18.068650          -51.079728          -68.343422            0.002348     0.629199  4020.653560
   15          -26.425493          -48.978236          -64.492368            0.638788     1.427233   730.096189
   16          -29.026759          -45.453352          -66.055857            0.000000     0.000000     0.000000
   17          -26.252801          -46.605606          -73.529721            0.531264     1.232083   850.055530
   18          -29.115252          -44.435016          -70.571266            0.000000     0.000000     0.000000
   19          -25.152772          -50.542248          -64.882204            0.000000     0.000000     0.000000
   20          -27.303240          -48.630435          -62.029843            0.035671     0.517360    16.990634
   21          -29.744638          -44.998365          -63.522326            0.635272     1.448647   727.249233
   22          -29.996562          -43.996510          -68.080901            0.751819     1.759955   492.546175
   23          -24.754892          -47.970880          -73.865073            0.000000     0.000000     0.000000
   24          -27.183221          -45.216396          -75.566676            0.065048     0.574351    29.107279
   25          -30.102733          -43.103359          -72.668173            0.538023     1.331681   858.687500
   26          -26.833195          -50.426887          -60.039110            0.318657     1.048961   511.449963
   27          -28.854204          -46.431030          -61.495328            0.037171     0.448226    16.945082
   28          -31.011580          -43.426668          -63.146356            0.000000     0.000000     0.000000
   29          -31.934291          -42.014940          -67.592963            0.000000     0.000000     0.000000
   30          -26.195711          -45.520835          -78.091006            0.186259     0.877171   561.260306
   31          -29.245768          -43.465688          -75.134006            0.057863     0.582294    25.577053
   32          -31.605979          -41.743235          -72.335522            0.000000     0.000000     0.000000
   33          -25.366393          -52.747158          -60.673210            0.003001     0.209714     7.880374
   34          -27.672028          -49.900717          -57.591346            0.182714     0.727350   329.358653
   35          -29.320943          -45.744776          -58.902711            0.316021     1.043192   510.083424
   36          -31.348681          -39.440880          -67.866796            0.043360     0.959825   384.680703
   37          -34.392681          -42.677336          -66.843351            0.045458     1.286898   443.396325
   38          -24.090060          -47.350790          -78.513187            0.000000     0.000000     0.000000
   39          -27.254591          -44.188902          -80.082519            0.168164     0.868398   221.379304
   40          -30.316435          -42.113953          -77.247766            0.183572     0.940247   535.728804
   41          -23.032113          -53.186149          -59.488480            0.022562     0.735027   314.190071
   42          -26.207024          -54.497826          -62.485963            0.031124     1.146174   303.804376
   43          -27.891190          -51.826564          -55.586248            0.035599     0.549412   163.483605
   44          -28.492504          -47.338924          -56.968517            0.184282     0.720143   330.269679
   45          -30.780639          -43.386995          -58.405614            0.001936     0.180424     4.760111
   46          -29.446483          -38.898860          -68.445570            0.000000    10.216179   838.576603
   47          -33.164758          -37.585995          -67.402167            0.002323     0.248984    38.650276
   48          -36.211531          -40.823363          -66.385970            0.000423     0.183946    10.863984
   49          -34.873813          -44.669596          -66.627128            0.000000    10.355019  1092.092346
   50          -21.656873          -46.859622          -77.575737            0.013677     1.053077   207.622812
   51          -24.502831          -49.615460          -79.827568            0.011722     0.494717   268.137710
   52          -26.280178          -44.553762          -82.707722            0.000000     0.000000     0.000000
   53          -29.344422          -42.462905          -79.655435            0.171168     0.910295   238.324386
   54          -32.413972          -40.287065          -76.772827            0.000000     0.000000     0.000000
   55          -22.348740          -51.833673          -58.092446            0.000000    10.158482   997.915040
   56          -21.598537          -55.319114          -60.073512            0.005527     0.554483  1089.723679
   57          -24.780619          -56.638661          -63.061122            0.000983     0.305883    20.133673
   58          -28.012299          -54.184348          -63.428781            0.000000     9.909528   920.887797
   59          -28.110083          -54.414510          -56.115146            0.041130     1.006506   385.568954
   60          -28.087116          -51.056239          -53.012152            0.057471     1.036569   363.522126
   61          -28.290427          -46.553921          -54.300581            0.036651     0.684472   159.566194
   62          -29.928089          -41.002973          -59.209954            0.030796     1.211277   306.218594
   63          -33.120070          -43.531912          -57.160467            0.023549     0.753810   320.749458
   64          -32.672693          -35.597581          -67.624738            0.002185     0.646825  2537.526104
   65          -35.602827          -38.271045          -66.661842            0.023082     1.192631   958.991456
   66          -38.110820          -41.377877          -65.810456            0.002320     0.576354  3884.523509
   67          -21.310619          -45.111676          -76.539294            0.000000     7.857120  1157.686214
   68          -19.688168          -48.569720          -77.965163            0.002712     0.525492   252.217532
   69          -22.537300          -51.331546          -80.210518            0.007616     0.879121  1468.619368
   70          -26.383487          -50.025479          -80.561687            0.000000    10.337021   761.913770
   71          -23.803179          -43.859730          -83.350860            0.014954     0.989510   447.495942
   72          -27.818718          -45.615107          -84.590093            0.014919     1.416610   378.098541
   73          -30.413446          -41.025910          -81.838448            0.000000     0.000000     0.000000
   74          -32.018336          -37.676865          -77.014563            0.011727     0.547988   277.339072
   75          -34.820137          -41.137889          -76.047952            0.013446     1.047094   193.501910
   76          -19.789032          -55.620071          -59.134667            0.000086     0.123761  7968.174512
   77          -22.470954          -57.059679          -61.854896            0.018211     1.051081  1234.599579
   78          -25.477280          -57.981721          -64.459896            0.001681     0.625956  3215.921571
   79          -28.342156          -56.215866          -54.194372            0.010003     0.459555   763.530841
   80          -28.124977          -55.062038          -58.060884            0.000000    10.210957    78.006596
   81          -28.213457          -52.904370          -51.046981            0.000272     0.170954     6.103874
   82          -28.119376          -48.423979          -52.369427            0.056463     0.908074   361.107907
   83          -28.071413          -44.013840          -53.576035            0.040545     0.934435   382.129831
   84          -28.118404          -40.855107          -60.184762            0.000000     9.900336   982.814785
   85          -31.347938          -38.831820          -58.743263            0.001049     0.347356    29.471689
   86          -34.546957          -41.363058          -56.705431            0.005529     0.609591  1052.371615
   87          -33.811410          -45.372054          -56.543096            0.000000    10.106148   983.019766
   88          -37.022862          -36.822151          -66.303156            0.000000    10.014751  3855.962845
   89          -17.809697          -48.148641          -77.230179            0.000539     0.366153  3637.567152
   90          -20.121867          -50.813078          -79.285099            0.006361     0.943122   851.672601
   91          -22.897041          -53.079962          -81.240234            0.000000    10.302094  3152.650819
   92          -22.582743          -43.031256          -81.912951            0.000000    10.320691   614.874183
   93          -22.890466          -44.214307          -85.798735            0.001382     0.510683   107.751593
   94          -26.904263          -45.985722          -87.034009            0.000090     0.190814     7.538740
   95          -29.751782          -46.158798          -84.129041            0.000000     6.085712   757.426967
   96          -28.934811          -39.259477          -83.154075            0.014996     1.364345   380.285003
   97          -32.920456          -41.397681          -82.618979            0.015002     0.875322   448.247538
   98          -30.158029          -36.987616          -77.569910            0.000000    10.317493   663.568520
   99          -33.974968          -35.967305          -76.564559            0.007447     0.798836  1456.548274
  100          -36.780512          -39.430789          -75.604711            0.002756     0.575827   244.542138
  101          -35.154186          -43.161655          -75.841562            0.000000     7.793172  1150.853520
  102          -21.353323          -58.729236          -62.310388            0.000000     9.888654  6094.945749
  103          -28.515087          -58.206103          -54.697892            0.000000    10.180707  5220.155865
  104          -28.333114          -55.486595          -51.680908            0.066668     1.423825  2460.134450
  105          -28.199376          -52.095109          -48.464557            0.000526     0.634177   582.851621
  106          -28.018982          -47.689097          -49.772415            0.000569     0.200919    13.528735
  107          -27.865796          -43.300064          -51.038817            0.009912     0.594810   756.789249
  108          -28.037326          -42.543994          -55.005644            0.000000    10.187645    82.402296
  109          -30.644613          -36.999279          -59.369808            0.001624     0.630011  3469.528417
  110          -33.662806          -39.002572          -57.486449            0.018043     1.112587  1205.742833
  111          -36.359517          -41.519943          -55.737853            0.000083     0.075647  5542.864028
  112          -18.584847          -52.151203          -79.587480            0.000000    10.100462  7740.691335
  113          -20.961229          -43.655139          -86.259022            0.000371     0.453987  7592.809049
  114          -24.436443          -45.282975          -87.650287            0.010936     1.074905  1448.531246
  115          -28.129276          -46.823070          -88.464101            0.000528     0.694529  1675.763891
  116          -26.980434          -38.949056          -82.581472            0.000000     6.053944   653.979972
  117          -29.935661          -37.896386          -85.175586            0.000101     0.062807    10.932311
  118          -33.920134          -40.046548          -84.650503            0.001456     0.562570    96.591525
  119          -34.095572          -42.762808          -81.619176            0.000000    10.276741   615.193042
  120          -33.630048          -33.945981          -76.767781            0.000000    10.295503  3395.689764
  121          -36.364630          -36.837887          -75.862689            0.006334     0.925422   870.940799
  122          -38.638459          -40.130401          -75.052680            0.000552     0.309086  3570.151232
  123          -28.444275          -56.887574          -50.172193            0.000000    10.011516  7336.947414
  124          -28.275642          -53.535108          -46.990224            0.000000     7.767539  3264.524805
  125          -28.058127          -49.597045          -47.853784            0.000489     0.513058   411.054904
  126          -27.900415          -45.105446          -49.144322            0.066436     1.257239  2274.695120
  127          -27.694327          -41.301862          -50.566953            0.000000    10.179681  4679.803604
  128          -34.775543          -37.305704          -57.129555            0.000000     9.801990  5613.331885
  129          -23.723286          -45.565193          -89.562407            0.000000     8.021793  1033.171744
  130          -28.756289          -36.526009          -86.164472            0.000527     0.693086  5776.883817
  131          -32.432475          -38.287034          -85.935480            0.010958     1.067721  1662.052951
  132          -35.871723          -40.369386          -85.228546            0.000394     0.398221  5926.610930
  133          -37.895533          -35.503465          -75.515854            0.000000    10.118982  7594.266691
  134          -28.001529          -48.998353          -45.881059            0.000000     8.896025   485.554051
  135          -27.810812          -44.557333          -47.158434            0.000000     9.972491   509.240725
  136          -33.213199          -37.227497          -87.520602            0.000000     9.281208  5201.365955
 --------------------------------------------------------------------------------
    VACUUM CHARGE:               0.0000
    VACUUM VOLUME:               0.0000
    NUMBER OF ELECTRONS:         6.7480
