    #         X           Y           Z       CHARGE      MIN DIST   ATOMIC VOL
 --------------------------------------------------------------------------------
    1            4.149215           10.198909           17.802373            0.000000     0.000000     0.000000
    2            5.740629            9.666800           19.917978            3.318126     0.908010   193.301115
    3            7.097698            8.134950           19.743632            0.000000     0.000000     0.000000
    4            5.542472           10.974169           22.143792            1.664361     0.441724    98.938790
    5            6.709227           10.469612           23.761851            0.000000     0.000000     0.000000
    6            3.809858           13.012843           22.354326            2.519715     0.652650   218.362703
    7            3.697816           14.046826           24.129459            0.000000     0.000000     0.000000
    8            2.292219           13.650663           20.354259            3.754658     0.863231   370.185074
    9            1.006506           15.252301           20.493248            0.000000     0.000000     0.000000
   10            2.309756           12.224468           18.054424            0.000000     0.000000     0.000000
   11            0.548587           12.701983           16.123861            4.317004     1.403832   196.570018
   12           -1.393087           14.720437           16.444189            0.000000     0.000000     0.000000
   13           -0.826925           17.248589           15.873435            0.235315     0.545771   149.352534
   14            1.044716           17.716485           15.146042            0.000000     0.000000     0.000000
   15           -2.616647           19.148425           16.264495            0.224743     0.614737   393.503247
   16            2.547332            0.738259           15.813398            0.000000     0.000000     0.000000
   17           -4.995208           18.548002           17.244790            0.000000     0.000000     0.000000
   18           -1.690795           -0.325203           17.608279            0.000000     0.000000     0.000000
   19           -5.595309           16.033098           17.775633            0.311542     0.624397   171.871642
   20            6.943591           15.541523           18.525666            0.047999     0.480928    50.849598
   21           -3.810633           14.134811           17.364032            0.280495     0.428662    64.869559
   22           -4.288885           12.177981           17.776465            0.000000     0.000000     0.000000
   23            0.572058           11.195626           13.909972            0.000000     0.000000     0.000000
   24           -1.220820           11.539669           11.966653            3.443224     1.098676   229.694899
   25           -2.631292           13.008780           12.221180            0.000000     0.000000     0.000000
   26           -1.246501           10.089947            9.751951            0.764398     0.534659    66.249762
   27           -2.982366           10.527608            7.700899            1.301745     0.556139   163.808348
   28            9.488995           12.553885            8.117848            0.000000     0.000000     0.000000
   29           -4.219985           15.088669            8.540561            0.139915     0.952399   187.053879
   30           -2.266122           15.677584            8.243269            0.000000     0.000000     0.000000
   31            8.386680           16.840332            9.376122            0.045374     0.219342    20.194555
   32           -5.426632           18.781156            9.744543            0.011288     0.545901    88.187732
   33            5.888084           16.096782            9.791011            0.645427     0.825922   325.800639
   34            4.527746           17.429473           10.573925            0.000000     0.000000     0.000000
   35            5.152055           13.624963            9.233013            0.043026     0.314447    27.095572
   36            3.195243           13.047727            9.500296            0.031074     0.270167    17.797359
   37            6.935276           11.871467            8.397886            0.920787     1.212540   126.615499
   38            6.362878            9.930303            8.010114            0.000000     0.000000     0.000000
   39           -2.964924            8.923948            5.595158            1.443840     0.663567   150.587453
   40           10.096826            9.544175            3.230373            1.490708     0.450421    36.684353
   41            9.350063           12.018035            2.629195            3.268453     0.821402   276.621814
   42            9.816145           13.562999            3.892382            0.000000     0.000000     0.000000
   43            8.074384           12.583271            0.388169            0.526119     0.382654    71.988502
   44            7.525570           14.531654            0.009864            0.000000     0.000000     0.000000
   45            1.318178            8.380387           39.787843            4.864587     1.201176   161.120584
   46            0.249916            8.766515           38.070271            0.000000     0.000000     0.000000
   47            2.156688            5.897986           40.225769            0.000000     0.000000     0.000000
   48            9.706408            7.634777            1.372584            2.032329     0.830542   144.703428
   49            1.666001            3.942366           38.425540            0.306253     0.609444    66.104478
   50            0.611024            4.423849           36.721536            0.000000     0.000000     0.000000
   51            2.451428            1.525463           38.847024            0.899820     0.768529   207.466360
   52            2.036123            0.032352           37.494604            0.000000     0.000000     0.000000
   53            3.842494            0.880575           41.077770            0.491085     0.511856    68.864884
   54           10.776069            0.674632            0.434221            2.602874     0.918625   544.526554
   55           -0.587157           17.262119           40.187105            0.000000     0.000000     0.000000
   56           12.045417            0.082316            2.646467            0.475921     0.544556   172.452780
   57            7.848656           18.491386            3.088096            0.000000     0.000000     0.000000
   58           12.745296            1.988105            4.336903            1.889758     0.747047   413.407233
   59           -0.658683            1.435285            6.042135            0.000000     0.000000     0.000000
   60           12.157685            4.540407            3.905138            1.076258     0.488968    32.253174
   61           10.649136            5.124465            1.752929            2.277649     0.771657   110.198343
   62           -1.537916            6.560146            5.690967            0.623825     0.665554   100.173708
   63            0.349618            6.264574            7.514628            0.538133     0.793725   112.232327
   64            2.295677            4.222895            7.480500            0.072666     0.265787    75.039478
   65            4.150519            4.221535            5.588997            0.016463     0.149041    23.318173
   66            4.064650            5.612581            4.077424            0.000000     0.000000     0.000000
   67            6.122165            2.479718            5.639566            0.045516     0.869668   110.053059
   68            7.548662            2.521443            4.165845            0.000000     0.000000     0.000000
   69            6.284322            0.703866            7.577537            0.007277     0.345443    57.823257
   70            3.174740           19.735752            7.600573            0.000001     3.215726     0.581138
   71            4.446620            0.665467            9.470287            0.012196     0.447907    97.703871
   72           -0.132848           19.648597           10.997469            0.000108     0.580595     2.542480
   73            2.476618            2.418660            9.427107            0.028533     0.673657   113.903100
   74            1.070246            2.417281           10.936601            0.000000     0.000000     0.000000
   75            0.573305            8.063764            9.532780            0.793954     0.519609    94.943464
   76            2.410913            7.785955           11.406198            2.430289     1.029261   231.075102
   77            3.806343            6.303730           11.196892            0.000000     0.000000     0.000000
   78            2.494533            9.268974           13.604460            0.208064     0.341692    15.763375
   79            4.305325            8.804706           15.542015            3.189643     1.239908   146.374200
   80            6.250118            6.804261           15.122193            0.000000     0.000000     0.000000
   81            7.973492            7.031879           13.109370            0.235894     0.592701    68.138461
   82            7.978065            8.758370           11.991333            0.000000     0.000000     0.000000
   83            9.634863            5.073763           12.509023            0.189159     0.516422    99.519928
   84           10.901282            5.277854           10.900016            0.000000     0.000000     0.000000
   85            9.653798            2.861045           13.948635            0.123148     0.663752   182.332130
   86           10.923600            1.312131           13.458478            0.000000     0.000000     0.000000
   87            8.049364            2.659638           16.035044            0.008770     0.245461    15.836018
   88            8.091032            0.984245           17.236551            0.021531     0.575085   112.958750
   89            6.359174            4.603789           16.604967            0.344051     1.044729   111.360620
   90            5.098972            4.414060           18.215618            0.000000     0.000000     0.000000
   91           -0.640920            7.851736           23.317350            4.400490     0.318992    50.994883
   92           -2.232333            8.383864           21.201726            9.131077     0.698994   179.499081
   93           -3.589402            9.915714           21.376072            0.000000     0.000000     0.000000
   94           -2.034177            7.076495           18.975931            7.849020     0.737798   152.258225
   95           -3.200931            7.581033           17.357871            0.000000     0.000000     0.000000
   96           -0.301562            5.037802           18.765396           10.373361     0.688703   343.089503
   97           -0.189540            4.003819           16.990244            0.000000     0.000000     0.000000
   98            1.216058            4.400001           20.765444            9.155845     0.712057   335.679990
   99            2.501771            2.798344           20.626474            0.000000     0.000000     0.000000
  100            1.198540            5.826196           23.065279            6.054718     0.462946    65.959193
  101            2.959689            5.348662           24.995842           24.312811     1.149655   258.606528
  102            4.901383            3.330208           24.675534            0.000000     0.000000     0.000000
  103            4.335221            0.802075           25.246269            0.642888     0.467679   118.334279
  104            2.463560            0.334160           25.973681            0.000000     0.000000     0.000000
  105            6.124943           -1.097780           24.855228            0.109578     0.529943    45.691996
  106            0.960964           17.312405           25.306305            0.000000     0.000000     0.000000
  107           -2.379789            1.953882           31.328692            0.391058     0.650876   227.370346
  108            8.503503           -0.497338           23.874932            0.066937     0.606597   146.592127
  109            5.199090           18.375867           23.511424            0.000002     3.949715     0.072642
  110            9.103604            2.017566           23.344070            0.138607     0.659153    50.486387
  111           -3.435295            2.509141           22.594038            0.000000     0.000000     0.000000
  112            7.318928            3.915834           23.755672            0.654990     0.428668    78.308381
  113            7.797161            5.872664           23.343239            0.000000     0.000000     0.000000
  114            2.936238            6.855038           27.209732            0.000000     0.000000     0.000000
  115            4.729115            6.510995           29.153051           29.358175     1.444251   361.613285
  116            6.139588            5.041884           28.898523            0.000000     0.000000     0.000000
  117            4.754797            7.960698           31.367753            0.000000     0.000000     0.000000
  118            6.490661            7.523037           33.418805           23.590368     0.906014   259.841446
  119           -5.980700            5.496779           33.001856            0.000000     0.000000     0.000000
  120            7.728281            2.961976           32.579143            1.233920     1.016710   175.213187
  121            5.774417            2.373080           32.876435            0.000000     0.000000     0.000000
  122           -4.878385            1.210332           31.743601            0.029465     0.194005    10.169920
  123            8.934927           -0.730493           31.375161            0.057355     0.679717   170.418796
  124           -0.642242           13.829129           35.530725            1.512599     1.112574   132.572167
  125           -1.019469            0.621191           30.545779            0.000000     0.000000     0.000000
  126           -1.643759            4.425682           31.886691            0.368178     0.605458    74.167771
  127            0.313052            5.002937           31.619408            0.000000     0.000000     0.000000
  128           -3.426981            6.179197           32.721836            0.754470     0.411942    82.013138
  129           -2.854582            8.120361           33.109589            0.000000     0.000000     0.000000
  130            6.473200            9.126716           35.524546            8.615707     0.416526   100.173708
  131           -6.588549            8.506470           37.889349            1.940007     0.624643    62.762933
  132           -5.841786            6.032611           38.490509            2.663826     0.711425   223.302378
  133           -6.307849            4.487665           37.227321            0.000000     0.000000     0.000000
  134           -4.566107            5.467393           40.731535            1.179096     0.491013   139.037330
  135           -4.017274            3.518991           41.109839            0.000000     0.000000     0.000000
  136            2.190098            9.670277            1.331860            0.217970     0.835857    99.447285
  137            3.258360            9.284149            3.049432            0.000000     0.000000     0.000000
  138            1.351608           12.152678            0.893935            0.016532     0.328498    17.724717
  139           -6.198132           10.415887           39.747139            1.847168     0.665456    88.550943
  140            1.842294           14.108280            2.694164            0.046790     0.406584    58.767607
  141            2.897271           13.626796            4.398167            0.000000     0.000000     0.000000
  142            1.056867           16.525201            2.272679            0.148195     0.976982   179.934935
  143            1.472172           18.018312            3.625118            0.000000     0.000000     0.000000
  144           -0.334217           17.170070            0.041933            0.030703     0.448401    20.339839
  145           -7.267773           17.376013           40.685482            3.224939     0.918660   521.862161
  146            4.095452            0.788545            0.932599            0.000022     1.710352     0.653781
  147           -8.537121           17.968347           38.473237            0.884438     0.556047   217.490995
  148           -4.340361           -0.440741           38.031626            0.000000     0.000000     0.000000
  149           -9.237000           16.062559           36.782820            1.613087     0.747021   261.366934
  150            4.166978           16.615360           35.077588            0.000000     0.000000     0.000000
  151           -8.649409           13.510257           37.214566            1.373038     0.488971    38.064556
  152           -7.140840           12.926199           39.366775            3.175949     0.771638   127.850418
  153            5.046211           11.490499           35.428737           14.307130     0.718074   148.626111
  154            3.158658           11.786071           33.605075           26.317332     0.990998   268.703805
  155            1.212618           13.827750           33.639204            0.000000     0.000000     0.000000
  156           -0.556373           12.438064           37.042279            0.000000     0.000000     0.000000
  157           -2.613869           15.570928           35.480137            0.017489     0.262086     4.794391
  158           -4.040367           15.529202           36.953878            0.067158     0.456917    21.502116
  159           -2.776027           17.346779           33.542166            0.991755     0.835099   289.043644
  160            0.333556           -1.685088           33.519149            0.000000     0.000000     0.000000
  161           -0.938325           17.385197           31.649435            0.191043     0.252297    45.328785
  162            3.641143           -1.597952           30.122234            0.000000     0.000000     0.000000
  163            1.031677           15.631985           31.692597            1.178029     0.819745   156.907331
  164            2.438030           15.633383           30.183103            0.000000     0.000000     0.000000
  165            2.934990            9.986881           31.586923            0.296730     0.336481     3.050976
  166            1.097383           10.264690           29.713506           30.082929     1.339268   297.324864
  167           -0.298048           11.746934           29.922812            0.000000     0.000000     0.000000
  168            1.013744            8.781671           27.515244            0.000000     0.000000     0.000000
  169           -0.797049            9.245957           25.577689           23.130289     1.219265   219.670264
  170           -2.741823           11.246384           25.997529            0.000000     0.000000     0.000000
  171           -4.465196           11.018785           28.010333            1.106018     0.691808    77.654601
  172           -4.469769            9.292294           29.128371            0.000000     0.000000     0.000000
  173           -6.126587           12.976900           28.610680            0.273596     0.397290    51.212810
  174           -7.393005           12.772810           30.219688            0.000000     0.000000     0.000000
  175           -6.145503           15.189619           27.171087            0.642115     1.029781   224.246728
  176           -7.415304           16.738533           27.661225            0.000000     0.000000     0.000000
  177           -4.541069           15.391026           25.084659            0.001315     0.614547     0.581138
  178           -4.582737           17.066419           23.883152            0.033048     0.421222    81.867853
  179           -2.850898           13.446875           24.514756            1.634066     0.896474   183.131196
  180           -1.590696           13.636585           22.904085            0.000000     0.000000     0.000000
  181           -2.055191            7.886910           58.922082            0.289812     0.630054    47.580695
  182           -0.463777            7.354801           61.037687            0.395769     0.698953   123.637166
  183            0.893292            5.822951           60.863341            0.000000     0.000000     0.000000
  184           -0.661933            8.662170           63.263501            0.473912     0.737878    77.218747
  185            0.504821            8.157613           64.881560            0.000000     0.000000     0.000000
  186           -2.394548           10.700844           63.474035            0.733618     0.688754   184.947253
  187           -2.506589           11.734827           65.249168            0.000000     0.000000     0.000000
  188           -3.912187           11.338665           61.473968            0.783797     0.712036   224.827866
  189           -5.197900           12.940302           61.612957            0.000000     0.000000     0.000000
  190           -3.894650            9.912470           59.174134            0.304599     0.516299    45.909923
  191           -5.655818           10.389984           57.243571            1.608523     1.137404   179.644366
  192           -7.597493           12.408439           57.563898            0.009691     0.219255    11.186912
  193           -7.031331           14.936590           56.993144            0.171131     0.586003   256.935755
  194           -5.159689           15.404486           56.265751            0.000000     0.000000     0.000000
  195           -8.821053           16.836426           57.384204            0.089691     0.430369   357.690602
  196           -3.657074           -1.573739           56.933107            0.000000     0.000000     0.000000
  197          -11.199613           16.236003           58.364499            0.007805     0.343098    28.911629
  198           -7.895200           -2.637202           58.727988            0.000000     0.000000     0.000000
  199          -11.799714           13.721099           58.895342            0.145140     0.624395   173.978268
  200            0.739185           13.229525           59.645375            0.046611     0.480954    72.642283
  201          -10.015038           11.822813           58.483741            0.139877     0.428641    88.696228
  202          -10.493290            9.865982           58.896174            0.000000     0.000000     0.000000
  203           -5.632348            8.883627           55.029681            0.000000     0.000000     0.000000
  204           -7.425225            9.227671           53.086362            1.677848     1.530061   210.662621
  205           -8.835698           10.696782           53.340889            0.000000     0.000000     0.000000
  206           -7.450907            7.777948           50.871660            0.000000     0.000000     0.000000
  207           -9.186771            8.215609           48.820608            1.874785     0.906035   221.994817
  208            3.284590           10.241887           49.237557            0.000000     0.000000     0.000000
  209          -10.424391           12.776671           49.660270            0.316389     0.727950   207.393718
  210           -8.470527           13.365585           49.362978            0.000000     0.000000     0.000000
  211            2.182275           14.528333           50.495831            0.164288     0.219319    52.665655
  212          -11.631038           16.469158           50.864252            0.002064     0.271470    25.134230
  213           -0.316321           13.784783           50.910720            1.085136     0.825937   369.894505
  214           -1.676660           15.117475           51.693634            0.000000     0.000000     0.000000
  215           -1.052351           11.312964           50.352722            0.071011     0.314400    30.364474
  216           -3.009162           10.735729           50.620005            0.026901     0.270195    18.596424
  217            0.730870            9.559469           49.517595            1.356615     0.984693   142.233590
  218            0.158472            7.618304           49.129824            0.000000     0.000000     0.000000
  219           -9.169329            6.611950           46.714867            0.827123     0.416473    93.635903
  220            3.892420            7.232177           44.350083            3.254875     0.681244    52.593013
  221            3.145657            9.706036           43.748904            6.262289     0.821360   275.096326
  222            3.611739           11.251000           45.012091            0.000000     0.000000     0.000000
  223            1.869978           10.271272           41.507878            0.665700     0.352386    44.965573
  224            1.321164           12.219655           41.129574            0.000000     0.000000     0.000000
  225           -4.886227            6.068389           80.907553            3.354293     1.201171   223.157094
  226           -5.954489            6.454516           79.189980            0.000000     0.000000     0.000000
  227           -4.047718            3.585988           81.345478            0.000000     0.000000     0.000000
  228            3.502003            5.322778           42.492293            2.391675     0.665459   125.525865
  229           -4.538404            1.630367           79.545249            0.093848     0.860357    82.739560
  230           -5.593381            2.111850           77.841245            0.000000     0.000000     0.000000
  231           -3.752977           -0.786536           79.966734            0.036396     0.552911    34.287158
  232           -4.168282           -2.279647           78.614313            0.000000     0.000000     0.000000
  233           -2.361912           -1.431424           82.197480            0.038405     0.208169     6.101952
  234            4.571663           -1.637366           41.553930            1.407163     0.857270   317.519419
  235           -6.791562           14.950120           81.306814            0.000000     0.000000     0.000000
  236            5.841011           -2.229682           43.766176            0.626379     0.556112   273.934049
  237            1.644251           16.179387           44.207805            0.000000     0.000000     0.000000
  238            6.540890           -0.323893           45.456612            0.895807     0.747076   269.793439
  239           -6.863088           -0.876714           47.161844            0.000002     3.329945     0.726423
  240            5.953280            2.228409           45.024847            0.811922     0.488966    29.202198
  241            4.444730            2.812466           42.872638            3.024978     0.771679   113.975742
  242           -7.742321            4.248148           46.810676            0.141362     0.424043    41.406101
  243           -5.854787            3.952576           48.634337            0.655862     1.041935   165.551763
  244           -3.908728            1.910897           48.600209            0.033256     0.265753    35.013580
  245           -2.053887            1.909536           46.708706            0.043886     0.745251    67.048827
  246           -2.139756            3.300582           45.197133            0.000000     0.000000     0.000000
  247           -0.082241            0.167719           46.759276            0.007049     0.404581    32.180531
  248            1.344257            0.209444           45.285554            0.000000     0.000000     0.000000
  249            0.079917           -1.608132           48.697246            0.006018     0.691216   108.527571
  250           -3.029666           17.423753           48.720282            0.000000     0.000000     0.000000
  251           -1.757785           -1.646532           50.589996            0.000023     1.811403     1.888699
  252           -6.337253           17.336599           52.117178            0.000000     0.000000     0.000000
  253           -3.727787            0.106662           50.546816            0.026198     1.003497   121.893751
  254           -5.134159            0.105282           52.056310            0.000000     0.000000     0.000000
  255           -5.631100            5.751765           50.652489            0.075421     0.345689    22.664392
  256           -3.793493            5.473956           52.525907            0.737148     1.102311   208.047499
  257           -2.398062            3.991731           52.316601            0.000000     0.000000     0.000000
  258           -3.709873            6.956976           54.724169            0.113258     0.419955    19.758701
  259           -1.899080            6.492708           56.661724            1.113616     1.169802   148.698753
  260            0.045712            4.492263           56.241902            0.019215     0.182812    21.647400
  261            1.769086            4.719880           54.229079            0.068264     0.294537    45.110858
  262            1.773659            6.446372           53.111042            0.000000     0.000000     0.000000
  263            3.430458            2.761765           53.628732            0.235235     0.623714   142.160948
  264            4.696876            2.965855           52.019725            0.000000     0.000000     0.000000
  265            3.449393            0.549047           55.068345            0.017623     0.278630    19.032278
  266            4.719194           -0.999867           54.578187            0.005859     0.380891    74.530982