    #         X           Y           Z       CHARGE      MIN DIST   ATOMIC VOL
 --------------------------------------------------------------------------------
    1   -0.892142    7.615488   23.402121    0.062395     0.545280    23.747430
    2   -2.878175    7.736988   21.565678    0.268570     0.947760   780.021098
    3   -4.484729    8.967268   21.937758    0.000000     6.708522   205.912289
    4   -2.792892    6.347147   19.381495    0.217069     0.851913  1190.590484
    5   -4.334177    6.474603   18.019874    0.000000     6.063327  5998.888415
    6   -0.695649    4.742902   18.877042    0.219808     0.810350  1585.550946
    7   -0.624510    3.676767   17.115327    0.000000     9.205437  5035.163835
    8    1.228431    4.527649   20.597883    0.265909     0.885040   934.996870
    9    2.825031    3.291743   20.202239    0.000000    10.385528    94.524086
   10    1.204005    5.900321   22.931904    0.052921     0.424766    19.961608
   11    3.146841    5.637715   24.731303    0.728649     1.340276   488.006659
   12    5.273425    3.845977   24.279539    0.000000     0.000000     0.000000
   13    4.889276    1.223471   24.406926    0.037779     0.662903   236.117887
   14    3.007940    0.505122   24.846235    0.000000    10.287729   619.012305
   15    6.880639   -0.455120   23.988614    0.005826     0.494138   257.719343
   16    9.291206    0.459631   23.427657    0.018177     0.989596  1203.162654
   17    9.697806    3.063290   23.293910    0.001895     0.398407    10.243990
   18    7.708013    4.740823   23.721350    0.040967     0.851329   440.289103
   19    8.031379    6.773431   23.617263    0.000000    10.252625  1001.501822
   20    3.071787    7.077489   26.998564    0.000000     0.000000     0.000000
   21    4.892254    6.768976   28.921915    0.823510     1.788258   745.381837
   22    6.343235    5.339292   28.660396    0.000000     0.000000     0.000000
   23    4.868716    8.170805   31.161654    0.008931     0.175281     6.498657
   24    6.505618    7.602908   33.258295    0.504552     0.997086   655.007984
   25    7.389905    2.939399   32.615500    0.050151     1.188877   342.485321
   26    5.361004    2.584312   32.556185    0.000000    10.099621   335.298332
   27    8.362039   -0.974502   32.061221    0.002539     0.713737  1682.868847
   28    6.467690    9.155704   35.395788    0.209628     0.708988   251.038481
   29    4.878410   16.770344   34.757952    0.000000     9.181889    69.116562
   30    5.205737   11.603539   35.258305    0.215535     0.658112   255.998515
   31    3.325463   11.985262   33.441547    0.498757     0.975169   648.225896
   32    1.505250   14.131962   33.568341    0.005500     0.188196     8.887572
   33   -0.109203   14.359597   35.662369    0.036564     0.733546   317.381473
   34    0.028318   12.979297   37.185636    0.000000    10.139443   668.389955
   35   -1.864565   16.320351   35.810072    0.007358     0.450562   466.992309
   36   -3.100177   16.458584   37.453355    0.000485     0.258818  4206.534399
   37   -2.041002   18.095918   33.865928    0.031287     0.990435  1266.003254
   38   -0.458535   17.883947   31.764018    0.000130     0.191508     1.234947
   39    1.287738   15.915045   31.611037    0.051298     1.065895   320.033573
   40    2.524085   15.764986   29.969220    0.000000     9.510560   375.666939
   41    3.040614   10.195225   31.413513    0.011398     0.167394     7.693115
   42    1.128184   10.394522   29.601246    0.822530     1.253221   752.285395
   43   -0.330475   11.818974   29.848409    0.000000     0.000000     0.000000
   44    1.032831    8.865008   27.419431    0.000000     0.000000     0.000000
   45   -0.944463    9.090930   25.615654    0.719531     1.294534   489.747733
   46   -3.051210   10.907252   26.064142    0.000000     0.000000     0.000000
   47   -4.910555   10.412062   27.890285    0.038799     0.838035   318.332989
   48   -4.803679    8.670260   28.986625    0.000000     6.403776   609.861548
   49   -6.883894   12.113047   28.303360    0.002198     0.282974    13.705891
   50   -8.313241   11.691568   29.726230    0.002479     0.671771  2355.388790
   51   -7.027224   14.345233   26.904081    0.015716     0.893828   736.635980
   52   -8.565952   15.675938   27.229680    0.000000     4.961184  1182.634184
   53   -5.185716   14.863713   25.086673    0.006398     0.754859   312.684624
   54   -5.278763   16.604410   23.987566    0.001731     0.461188  4180.519524
   55   -3.217654   13.158324   24.668638    0.035953     0.565628   185.302840
   56   -1.780993   13.568970   23.248924    0.000000    10.262061  1197.514288
   57    6.546529   -2.485475   24.103731    0.001897     0.548152  2707.267808
   58   10.846887   -0.850308   23.098947    0.000000    10.129545  2813.716222
   59   11.573400    3.795088   22.855802    0.002474     0.678791  4081.258099
   60    8.265230    5.417765   33.000915    0.007375     0.137657    12.491189
   61    9.080946    0.935652   32.344995    0.000168     0.184554     1.639848
   62    7.549750    8.418513   37.858396    0.069734     0.698022   205.406163
   63    6.084620   13.588918   37.008378    0.069624     0.740639   198.381135
   64   -3.410538   19.630501   33.981824    0.000000     7.315974  1125.725380
   65   -0.586185   19.254627   30.230794    0.002577     0.765390  1582.068799
   66   10.885924    5.831468   33.063682    0.035566     0.639400   324.406501
   67   11.682873    1.372901   32.426942    0.031193     1.220485  1349.412814
   68    7.934996    5.887481   38.544187    0.049355     0.837316   297.318639
   69    8.056198   10.306451   39.711918    0.083740     0.866681   350.725051
   70    7.468783   12.904236   39.215492    0.084014     0.816123   356.009007
   71    5.781218   16.172123   36.499038    0.048944     0.816827   299.120448
   72   12.577641    3.830500   32.779049    0.007299     0.406445   479.604968
   73   11.588476    7.747749   33.344635    0.000000    10.083222   478.653451
   74   13.004761   -0.191671   32.207411    0.000000     9.942713   726.169295
   75    7.424052    4.387354   37.242922    0.000000    10.184344    67.375489
   76    8.942491    5.217589   40.894597    0.019825     0.593369   826.706158
   77    9.189917    9.627533   42.067726    0.000663     0.196455    10.061784
   78    8.250330   14.801688   40.971385    0.000725     0.159544    12.916335
   79    6.639978   18.032726   38.168906    0.020243     0.608833   278.187078
   80   14.605126    4.194413   32.829500    0.000453     0.249177  1478.920326
   81    9.200478    3.224280   41.347253    0.000000    10.115799  3084.534105
   82    9.625219    7.061424   42.621834    0.094443     1.196398  2241.287751
   83    9.873192   11.574528   43.818522    0.000601     0.687893   323.252534
   84    7.807000   17.365982   40.414536    0.093806     1.144662  1638.127311
   85    9.464024   14.058168   43.272842    0.000589     0.616927   476.568212
   86    6.366749   20.017718   37.689851    0.000000     3.860098  1871.937264
   87   10.477440    6.554735   44.429875    0.000000     7.018688  3892.047967
   88   10.757749   11.021107   45.597352    0.000000     5.851113  4282.149618
   89    8.419897   18.806065   41.756813    0.000000     4.356812  3811.148792
   90   10.030828   15.532823   44.598328    0.000000     6.850602  4327.316300
 --------------------------------------------------------------------------------
    VACUUM CHARGE:               0.0000
    VACUUM VOLUME:               0.0000
    NUMBER OF ELECTRONS:         6.7482
